Title: Test Linear Advection
Variables = "Cell","I+","I-"
Zone I= 080 F=point
001  0.100000E-99  0.800000E+02
002  0.110000E-98  0.847839E-16
003  0.131000E-97  0.683245E-17
004  0.156100E-96  0.566496E-18
005  0.186010E-95  0.473770E-19
006  0.221651E-94  0.397212E-20
007  0.264121E-93  0.333257E-21
008  0.314729E-92  0.279651E-22
009  0.375033E-91  0.234680E-23
010  0.446893E-90  0.196943E-24
011  0.532521E-89  0.165275E-25
012  0.634556E-88  0.138699E-26
013  0.756142E-87  0.116397E-27
014  0.901025E-86  0.976804E-29
015  0.107367E-84  0.819736E-30
016  0.127939E-83  0.687924E-31
017  0.152453E-82  0.577307E-32
018  0.181665E-81  0.484478E-33
019  0.216473E-80  0.406575E-34
020  0.257951E-79  0.341198E-35
021  0.307377E-78  0.286334E-36
022  0.366272E-77  0.240292E-37
023  0.436453E-76  0.201654E-38
024  0.520081E-75  0.169228E-39
025  0.619733E-74  0.142017E-40
026  0.738478E-73  0.119181E-41
027  0.879977E-72  0.100017E-42
028  0.104859E-70  0.839343E-44
029  0.124950E-69  0.704379E-45
030  0.148892E-68  0.591116E-46
031  0.177421E-67  0.496066E-47
032  0.211416E-66  0.416300E-48
033  0.251925E-65  0.349360E-49
034  0.300196E-64  0.293183E-50
035  0.357716E-63  0.246040E-51
036  0.426257E-62  0.206477E-52
037  0.507932E-61  0.173276E-53
038  0.605255E-60  0.145414E-54
039  0.721227E-59  0.122032E-55
040  0.859420E-58  0.102409E-56
041  0.102409E-56  0.859420E-58
042  0.122032E-55  0.721227E-59
043  0.145414E-54  0.605255E-60
044  0.173276E-53  0.507932E-61
045  0.206477E-52  0.426257E-62
046  0.246040E-51  0.357716E-63
047  0.293183E-50  0.300196E-64
048  0.349360E-49  0.251925E-65
049  0.416300E-48  0.211416E-66
050  0.496066E-47  0.177421E-67
051  0.591116E-46  0.148892E-68
052  0.704379E-45  0.124950E-69
053  0.839343E-44  0.104859E-70
054  0.100017E-42  0.879977E-72
055  0.119181E-41  0.738478E-73
056  0.142017E-40  0.619733E-74
057  0.169228E-39  0.520081E-75
058  0.201654E-38  0.436453E-76
059  0.240292E-37  0.366272E-77
060  0.286334E-36  0.307377E-78
061  0.341198E-35  0.257951E-79
062  0.406575E-34  0.216473E-80
063  0.484478E-33  0.181665E-81
064  0.577307E-32  0.152453E-82
065  0.687924E-31  0.127939E-83
066  0.819736E-30  0.107367E-84
067  0.976804E-29  0.901025E-86
068  0.116397E-27  0.756142E-87
069  0.138699E-26  0.634556E-88
070  0.165275E-25  0.532521E-89
071  0.196943E-24  0.446893E-90
072  0.234680E-23  0.375033E-91
073  0.279651E-22  0.314729E-92
074  0.333257E-21  0.264121E-93
075  0.397212E-20  0.221651E-94
076  0.473770E-19  0.186010E-95
077  0.566496E-18  0.156100E-96
078  0.683245E-17  0.131000E-97
079  0.847839E-16  0.110000E-98
080  0.800000E+02  0.100000E-99
